128
Lattice="10.8324039878347 0.0 0.0 0.0 10.8324039878347 0.0 0.0 0.0 15.618864383171134" Properties=species:S:1:pos:R:3:force:R:3 virial="364.4464187201797 -50.07540142745361 -8.549510953381127 -50.07540142745361 387.5841213467607 9.745872137394375 -8.549510953381127 9.745872137394375 346.78670188488405" config_type=TiAl_T5000 energy=-108891.754076 pbc="T T T"
Ti      -2.62957690       1.35825347       3.20416317       1.27138000       0.43834000       1.41457000
Al      -2.93743382       5.73071001      -5.04197247     -14.67363000      12.88565000      11.92510000
Ti       4.01965597       0.55092523       4.82449540       0.30575000      -1.50375000       0.81233000
Al       1.58053440      -2.10245046       2.63993170       3.00312000       4.35993000       0.66401000
Ti      -2.35515961      -0.00678108       9.52241552      -0.46166000       0.44784000       0.69770000
Al      -1.87449335      -4.11324795       9.48636718       7.89316000       7.30114000      -9.27536000
Ti       3.40224144       6.40307733      14.21058948       1.90990000       2.02372000      -0.35346000
Al      -0.39565356       3.76892915      14.60893299      -3.33479000       3.94114000       7.34673000
Ti       2.73790094       3.04121908       1.09574143      -0.00179000       0.24648000       0.19338000
Al       0.92612721       5.35522639       5.15367859     -15.07669000       6.51510000      -7.57446000
Ti      -1.00113078       3.58861296       3.85370488      -0.10371000      -1.65592000       3.35427000
Al      -0.74863827       0.91526231       5.88318888       2.72776000       2.67856000      -4.08708000
Ti       2.99162834       5.95591569      11.95100837      -1.61237000       0.18688000      -1.34847000
Al      -2.09712091      -0.17508415       7.01343239      -4.47410000      -0.50329000       2.28116000
Ti       2.72520536       4.12296461      14.45357215      -0.29791000      -2.17104000      -0.04791000
Al      -1.13512761       2.93437908      12.14743120       3.35950000      -4.40127000       4.85587000
Ti       2.04266642      10.75943691       1.03248503       1.18200000      -1.51707000       0.94623000
Al       1.42211049       5.65598809       1.35487401      -2.19175000      -6.42686000      -8.44692000
Ti       3.94908286       9.74500395       2.85437870       0.20137000      -0.13729000       1.01365000
Al       0.11124879       8.01551316       5.31250682       9.58819000      -5.85110000      -1.15472000
Ti       5.45115816       6.75604038      12.05298393      -0.90617000       0.66967000       1.44304000
Al       4.37160078       1.41080146       7.18096033       5.44851000       2.47398000       0.25716000
Ti       2.73115235       9.44903017      14.02922322       0.86928000      -0.25895000      -0.11284000
Al       3.01902349       7.72615798       9.47726139       1.01092000      -0.50081000       8.50920000
Ti      -0.13573002      14.54960841       1.66440866       0.67390000       1.03682000       0.18030000
Al       5.87868065       6.22068131      -1.02326990      -0.53966000      -0.96590000       3.19939000
Ti       3.86048463       7.20258457       3.31180838       1.86821000       0.97499000      -0.53258000
Al      -1.38945079       6.57555086       5.34736812      -4.13888000      -2.47273000      -0.52073000
Ti       3.93799048       9.96531338       8.94337736       1.24535000       0.16158000      -2.10050000
Al       0.77819990       1.90800881       3.22181249      -0.32592000       3.12493000      -7.16773000
Ti       4.19126292      14.73986875      12.04661143      -1.98949000       1.72594000      -0.40575000
Al      -5.02352735       3.92998533       6.26542935       5.50362000       4.09300000       3.10625000
Ti       1.98748615       0.94623215      -1.15956011       2.09306000       0.18003000       0.05527000
Al       4.15609010      -2.29702210       0.61682019      -3.83803000      -7.84421000       1.95566000
Ti       1.86406174      -0.93585471       5.53893350      -0.31951000      -0.38014000      -1.43131000
Al       0.98919347       2.53558413       6.71180088       7.42554000      -5.06981000      12.59375000
Ti      -1.92817874       2.03014416       8.34408154       0.25151000       1.18986000      -0.60194000
Al      -0.26818866      -7.04927355       6.50093059     -11.51504000       9.76415000      -2.08127000
Ti       7.38802449      -0.26096344      15.98567341       1.86846000      -2.41988000      -4.79575000
Al      -0.59551141      -1.95618051       8.34203547      -5.13494000      -3.55559000      15.41977000
Ti      -0.43382695       7.86775917      -1.22006759      -1.02114000       0.30869000      -0.07427000
Al      10.52091821       8.15009494       1.33939572      -1.18178000       0.46469000      -3.05238000
Ti       4.60991367       3.46049811       3.12160185       0.90044000       0.43360000      -0.13713000
Al       1.62221749      -2.00169827       8.18173906       0.19156000       2.08033000      -2.68764000
Ti      -0.53105861       3.45500608       8.90147195       1.32762000       1.26450000       2.15406000
Al       2.26757962       4.67020683       3.31497901       2.56692000      -5.19891000       0.37508000
Ti       1.89059030       8.13159320      12.16722031       1.53341000      -0.72330000       0.72596000
Al      -2.75136562       2.00714697      11.02416933      -4.17578000      -3.20324000      -2.45330000
Ti       3.72565370      12.31263033       2.56935005      -0.92176000      -0.70462000      -1.10220000
Al       1.87214272       7.63057285       0.32637179      -0.24266000       3.30808000      -1.19991000
Ti       3.65847113       3.19293773       9.18276770      -0.99964000       0.67743000      -0.17430000
Al       6.47647770       8.10014673       4.37147024       1.40965000      -2.29341000      -2.88139000
Ti       5.40463299       7.91406769       8.61887984      -0.78261000       0.57845000      -0.34456000
Al      -0.42508520       0.96459308      11.27991262      -0.77251000      -3.02684000       0.67759000
Ti       6.06581043       4.11690930      13.17890101       1.63005000       1.25770000       0.41235000
Al       1.02256810       6.11908419      14.20713771      -0.49648000      -2.94937000      -1.51634000
Ti       5.17629674      14.80834038       0.28730901       0.71337000      -1.09659000      -0.41859000
Al       5.98932282      10.27541261      -2.63182551      -0.32548000       3.57820000      -0.96205000
Ti       5.58285853       5.40715694       2.41573852       0.55403000       1.81800000      -0.32015000
Al       2.51652993      11.45642628       7.33419700      -5.40317000      -1.63405000       1.44524000
Ti       2.35936258       5.00511226       9.31957333      -1.22525000       0.46393000      -0.31642000
Al       0.26115843      11.13049008       8.78928165      -4.55641000      -0.21163000      -5.61960000
Ti       2.94832039      12.27835660      12.17426441      -3.83038000      -1.18221000       2.05397000
Al       8.14648775       8.77228657      13.87365933       2.51597000       3.46896000      -0.25022000
Ti      16.21277239       1.71511619      -1.15051679      -3.77136000       0.23553000       0.92662000
Al       0.71810173       2.73185646      -2.18565703       5.93981000      -5.42247000      -3.94578000
Ti       5.84335618       0.61264827      10.36381937       2.65144000      -2.91633000       1.10202000
Al       2.33581294      -6.13462869       5.93362220      12.52879000      -3.10962000       9.63312000
Ti       3.80369034       1.14550506      10.31616621      -0.11037000      -0.89157000      -2.71439000
Al       2.97141507      -3.90931711       7.57482123       2.03681000      -3.23138000      -3.11906000
Ti       7.42955593       2.07450286      13.84980933       0.98976000       0.79083000      -0.54552000
Al       1.25818372       1.71258141      10.00110248       4.21863000       4.46760000      -0.07491000
Ti       6.03851277      -0.08736334       2.23826136      -1.01586000      -1.05551000       3.87520000
Al       9.57717751       5.74348142       3.00325772      26.25169000      -6.24956000       1.81289000
Ti       4.72208321       6.19625424       5.43673927      -1.64923000      -0.56919000      -1.60094000
Al       3.32185417       2.81033723       5.36486125       4.62375000       1.23488000      -0.17490000
Ti       4.83630008       5.89749654      10.02345307       0.53391000      -1.51556000      -1.57401000
Al       6.28388839      -0.26408318       7.26739512      -1.15705000      -0.50879000       1.11352000
Ti       8.89091222       2.43241632      16.44338423      -0.31998000      -0.95088000       0.38450000
Al       1.65706534       3.64195171      11.49818625       2.60310000      -0.49197000      -1.39790000
Ti       6.28216603       8.02332332       1.77277235      -0.64414000       0.72577000       0.09202000
Al       8.07774532       6.18269207       2.83927526     -24.41244000       9.21629000      -4.03705000
Ti       6.49979986       6.67687717       6.71433113       0.13139000      -1.09806000       0.17913000
Al       5.85726499       2.54418506       5.12650176      -1.63575000     -11.18475000      -9.69357000
Ti       5.96931537       3.55387344      10.50687255      -0.88267000      -0.74659000       1.40501000
Al       2.39826175       7.37194920       5.43320940       0.80976000       0.50153000      -1.55176000
Ti       7.85458696       4.80059648      16.11987070      -1.76239000      -0.12225000      -1.10784000
Al       7.61448673       4.50623673       9.23113932      -2.66237000      -6.51416000     -13.91539000
Ti       6.60966210      12.43844870       0.81189981      -0.94436000       4.33892000       1.75427000
Al       4.31138345       9.30722317      -4.13193933      -1.05042000      -0.25921000      -0.78260000
Ti       7.48379378       9.03158182       8.94376784      -0.28664000      -0.13177000       1.38658000
Al       4.89178365       8.68249677       5.70208815      -3.79577000       2.51135000       2.80014000
Ti       9.26839984       8.91466768      11.25220475       1.12327000       0.80743000      -1.51314000
Al       1.52853886      12.59132642       5.09059399       1.35414000      -7.59518000      -4.33357000
Ti       4.95585732      12.56375795      12.38127684       2.44988000      -1.03186000       0.67239000
Al       4.81533938       4.94225182       7.47706276      -6.63349000       4.85645000       9.89114000
Ti      11.23665847       1.64367648       0.55104915      -0.55470000       0.60382000       0.19075000
Al       7.71240083      -4.20780400      -2.34115844      -3.12542000       0.40171000       1.49825000
Ti       7.88875237      -2.48039303       6.79167575       1.47812000      -0.55133000      -1.16869000
Al       7.45972417      -7.07882435       2.94954444      -0.44307000      -2.18297000      -2.36645000
Ti       6.88917062      -2.44110390      11.27572676      -0.04669000      -0.16899000       0.08177000
Al       6.61453669     -10.52747182       4.88556516      -0.03049000      -1.33569000      -0.17714000
Ti       9.39213839       1.17150283      14.20474802       1.35097000       0.20145000      -1.11505000
Al      10.64224114       4.87945638      11.69328148       3.09170000       2.67453000      -1.03524000
Ti       8.45947924      -1.32893015       4.48047429       1.95651000       1.27791000       0.73841000
Al      12.40068694       6.64387084       3.00800585      -2.73785000       4.28543000       6.71055000
Ti       8.39521058       5.20177456       6.97913336       0.37340000      -1.62839000       1.04811000
Al       1.44828158      -0.68481375      10.33712673       2.45447000      -2.44219000       3.23606000
Ti       6.22857813       2.04298056       8.65352248       0.75303000       2.00780000      -1.75517000
Al      10.29536590      -2.60744630       3.51799301      -4.47704000       0.36474000      -5.77194000
Ti       9.66582991       5.84133052      16.13620803       1.36107000       0.17585000      -2.34570000
Al       9.41861278       6.71787782      12.01426477       3.50091000       1.78517000       0.30721000
Ti       7.93798564       7.66794464       0.67546903       1.31394000       0.28064000      -1.33450000
Al      10.40503315       9.17584778       6.58467894      -1.14841000       9.52592000      -5.12206000
Ti      14.63185885       6.04269408       0.81447692       0.68022000      -1.37764000       0.84521000
Al       6.88997222       5.25020624       4.57540575       0.43774000       0.45552000       2.38158000
Ti      11.38369752       7.28593992      10.47946144      -0.22647000      -0.64134000      -1.16250000
Al       8.01854623       2.64726622       5.64443892       2.87823000       0.38244000       1.01618000
Ti      10.92165216      10.17324137      15.04327799      -0.61116000      -1.09143000       1.36306000
Al       8.71698714       4.65429403      13.41938466      -1.25924000      -0.24559000       1.93114000
Ti       8.67416665      10.26076720       2.05235002       1.49078000      -1.66690000      -0.49249000
Al       4.78802005      10.26128715       0.09696191       1.36583000       9.46613000      -2.12883000
Ti      11.09582639       6.35566389       7.60321633       0.11793000       0.40038000      -0.35271000
Al      11.00053373      10.65074457       3.31410436      -1.43956000      -2.12414000       0.47075000
Ti       8.25958888      10.76986852      12.26166758       0.89088000      -0.49142000       0.17735000
Al       8.54730837       4.14101140      11.06743359       1.96260000      -7.06496000       2.70346000
Ti      11.10649631       9.59155211      12.75039746      -0.69437000       2.16052000      -0.38552000
Al      16.76341598       8.61585582      14.32135846      -2.34817000      -3.78944000       2.54815000
