16000
pbc=[T, T, T] config_type=TiAl_T5000 energy=-108891.75407600 Lattice="54.16201994 0.00000000 0.00000000 0.00000000 54.16201994 0.00000000 0.00000000 0.00000000 78.09432192" Properties=species:S:1:pos:R:3:velocities:R:3:charge:R:1:magnetic_moment:R:1:Z:I:1
Ti        -2.62957690       1.35825347       3.20416317         0.00000000       0.00000000       0.00000000         0.00000000         0.00000000         22
Al        -2.93743382       5.73071001      -5.04197247         0.00000000       0.00000000       0.00000000         0.00000000         0.00000000         13
Ti         4.01965597       0.55092523       4.82449540         0.00000000       0.00000000       0.00000000         0.00000000         0.00000000         22
Al         1.58053440      -2.10245046       2.63993170         0.00000000       0.00000000       0.00000000         0.00000000         0.00000000         13
Ti        -2.35515961      -0.00678108       9.52241552         0.00000000       0.00000000       0.00000000         0.00000000         0.00000000         22
Al        -1.87449335      -4.11324795       9.48636718         0.00000000       0.00000000       0.00000000         0.00000000         0.00000000         13
Ti         3.40224144       6.40307733      14.21058948         0.00000000       0.00000000       0.00000000         0.00000000         0.00000000         22
Al        -0.39565356       3.76892915      14.60893299         0.00000000       0.00000000       0.00000000         0.00000000         0.00000000         13
Ti         2.73790094       3.04121908       1.09574143         0.00000000       0.00000000       0.00000000         0.00000000         0.00000000         22
Al         0.92612721       5.35522639       5.15367859         0.00000000       0.00000000       0.00000000         0.00000000         0.00000000         13
Ti        -1.00113078       3.58861296       3.85370488         0.00000000       0.00000000       0.00000000         0.00000000         0.00000000         22
Al        -0.74863827       0.91526231       5.88318888         0.00000000       0.00000000       0.00000000         0.00000000         0.00000000         13
Ti         2.99162834       5.95591569      11.95100837         0.00000000       0.00000000       0.00000000         0.00000000         0.00000000         22
Al        -2.09712091      -0.17508415       7.01343239         0.00000000       0.00000000       0.00000000         0.00000000         0.00000000         13
Ti         2.72520536       4.12296461      14.45357215         0.00000000       0.00000000       0.00000000         0.00000000         0.00000000         22
Al        -1.13512761       2.93437908      12.14743120         0.00000000       0.00000000       0.00000000         0.00000000         0.00000000         13
Ti         2.04266642      10.75943691       1.03248503         0.00000000       0.00000000       0.00000000         0.00000000         0.00000000         22
Al         1.42211049       5.65598809       1.35487401         0.00000000       0.00000000       0.00000000         0.00000000         0.00000000         13
Ti         3.94908286       9.74500395       2.85437870         0.00000000       0.00000000       0.00000000         0.00000000         0.00000000         22
Al         0.11124879       8.01551316       5.31250682         0.00000000       0.00000000       0.00000000         0.00000000         0.00000000         13
Ti         5.45115816       6.75604038      12.05298393         0.00000000       0.00000000       0.00000000         0.00000000         0.00000000         22
Al         4.37160078       1.41080146       7.18096033         0.00000000       0.00000000       0.00000000         0.00000000         0.00000000         13
Ti         2.73115235       9.44903017      14.02922322         0.00000000       0.00000000       0.00000000         0.00000000         0.00000000         22
Al         3.01902349       7.72615798       9.47726139         0.00000000       0.00000000       0.00000000         0.00000000         0.00000000         13
Ti        -0.13573002      14.54960841       1.66440866         0.00000000       0.00000000       0.00000000         0.00000000         0.00000000         22
Al         5.87868065       6.22068131      -1.02326990         0.00000000       0.00000000       0.00000000         0.00000000         0.00000000         13
Ti         3.86048463       7.20258457       3.31180838         0.00000000       0.00000000       0.00000000         0.00000000         0.00000000         22
Al        -1.38945079       6.57555086       5.34736812         0.00000000       0.00000000       0.00000000         0.00000000         0.00000000         13
Ti         3.93799048       9.96531338       8.94337736         0.00000000       0.00000000       0.00000000         0.00000000         0.00000000         22
Al         0.77819990       1.90800881       3.22181249         0.00000000       0.00000000       0.00000000         0.00000000         0.00000000         13
Ti         4.19126292      14.73986875      12.04661143         0.00000000       0.00000000       0.00000000         0.00000000         0.00000000         22
Al        -5.02352735       3.92998533       6.26542935         0.00000000       0.00000000       0.00000000         0.00000000         0.00000000         13
Ti         1.98748615       0.94623215      -1.15956011         0.00000000       0.00000000       0.00000000         0.00000000         0.00000000         22
Al         4.15609010      -2.29702210       0.61682019         0.00000000       0.00000000       0.00000000         0.00000000         0.00000000         13
Ti         1.86406174      -0.93585471       5.53893350         0.00000000       0.00000000       0.00000000         0.00000000         0.00000000         22
Al         0.98919347       2.53558413       6.71180088         0.00000000       0.00000000       0.00000000         0.00000000         0.00000000         13
Ti        -1.92817874       2.03014416       8.34408154         0.00000000       0.00000000       0.00000000         0.00000000         0.00000000         22
Al        -0.26818866      -7.04927355       6.50093059         0.00000000       0.00000000       0.00000000         0.00000000         0.00000000         13
Ti         7.38802449      -0.26096344      15.98567341         0.00000000       0.00000000       0.00000000         0.00000000         0.00000000         22
Al        -0.59551141      -1.95618051       8.34203547         0.00000000       0.00000000       0.00000000         0.00000000         0.00000000         13
Ti        -0.43382695       7.86775917      -1.22006759         0.00000000       0.00000000       0.00000000         0.00000000         0.00000000         22
Al        10.52091821       8.15009494       1.33939572         0.00000000       0.00000000       0.00000000         0.00000000         0.00000000         13
Ti         4.60991367       3.46049811       3.12160185         0.00000000       0.00000000       0.00000000         0.00000000         0.00000000         22
Al         1.62221749      -2.00169827       8.18173906         0.00000000       0.00000000       0.00000000         0.00000000         0.00000000         13
Ti        -0.53105861       3.45500608       8.90147195         0.00000000       0.00000000       0.00000000         0.00000000         0.00000000         22
Al         2.26757962       4.67020683       3.31497901         0.00000000       0.00000000       0.00000000         0.00000000         0.00000000         13
Ti         1.89059030       8.13159320      12.16722031         0.00000000       0.00000000       0.00000000         0.00000000         0.00000000         22
Al        -2.75136562       2.00714697      11.02416933         0.00000000       0.00000000       0.00000000         0.00000000         0.00000000         13
Ti         3.72565370      12.31263033       2.56935005         0.00000000       0.00000000       0.00000000         0.00000000         0.00000000         22
Al         1.87214272       7.63057285       0.32637179         0.00000000       0.00000000       0.00000000         0.00000000         0.00000000         13
Ti         3.65847113       3.19293773       9.18276770         0.00000000       0.00000000       0.00000000         0.00000000         0.00000000         22
Al         6.47647770       8.10014673       4.37147024         0.00000000       0.00000000       0.00000000         0.00000000         0.00000000         13
Ti         5.40463299       7.91406769       8.61887984         0.00000000       0.00000000       0.00000000         0.00000000         0.00000000         22
Al        -0.42508520       0.96459308      11.27991262         0.00000000       0.00000000       0.00000000         0.00000000         0.00000000         13
Ti         6.06581043       4.11690930      13.17890101         0.00000000       0.00000000       0.00000000         0.00000000         0.00000000         22
Al         1.02256810       6.11908419      14.20713771         0.00000000       0.00000000       0.00000000         0.00000000         0.00000000         13
Ti         5.17629674      14.80834038       0.28730901         0.00000000       0.00000000       0.00000000         0.00000000         0.00000000         22
Al         5.98932282      10.27541261      -2.63182551         0.00000000       0.00000000       0.00000000         0.00000000         0.00000000         13
Ti         5.58285853       5.40715694       2.41573852         0.00000000       0.00000000       0.00000000         0.00000000         0.00000000         22
Al         2.51652993      11.45642628       7.33419700         0.00000000       0.00000000       0.00000000         0.00000000         0.00000000         13
Ti         2.35936258       5.00511226       9.31957333         0.00000000       0.00000000       0.00000000         0.00000000         0.00000000         22
Al         0.26115843      11.13049008       8.78928165         0.00000000       0.00000000       0.00000000         0.00000000         0.00000000         13
Ti         2.94832039      12.27835660      12.17426441         0.00000000       0.00000000       0.00000000         0.00000000         0.00000000         22
Al         8.14648775       8.77228657      13.87365933         0.00000000       0.00000000       0.00000000         0.00000000         0.00000000         13
Ti        16.21277239       1.71511619      -1.15051679         0.00000000       0.00000000       0.00000000         0.00000000         0.00000000         22
Al         0.71810173       2.73185646      -2.18565703         0.00000000       0.00000000       0.00000000         0.00000000         0.00000000         13
Ti         5.84335618       0.61264827      10.36381937         0.00000000       0.00000000       0.00000000         0.00000000         0.00000000         22
Al         2.33581294      -6.13462869       5.93362220         0.00000000       0.00000000       0.00000000         0.00000000         0.00000000         13
Ti         3.80369034       1.14550506      10.31616621         0.00000000       0.00000000       0.00000000         0.00000000         0.00000000         22
Al         2.97141507      -3.90931711       7.57482123         0.00000000       0.00000000       0.00000000         0.00000000         0.00000000         13
Ti         7.42955593       2.07450286      13.84980933         0.00000000       0.00000000       0.00000000         0.00000000         0.00000000         22
Al         1.25818372       1.71258141      10.00110248         0.00000000       0.00000000       0.00000000         0.00000000         0.00000000         13
Ti         6.03851277      -0.08736334       2.23826136         0.00000000       0.00000000       0.00000000         0.00000000         0.00000000         22
Al         9.57717751       5.74348142       3.00325772         0.00000000       0.00000000       0.00000000         0.00000000         0.00000000         13
Ti         4.72208321       6.19625424       5.43673927         0.00000000       0.00000000       0.00000000         0.00000000         0.00000000         22
Al         3.32185417       2.81033723       5.36486125         0.00000000       0.00000000       0.00000000         0.00000000         0.00000000         13
Ti         4.83630008       5.89749654      10.02345307         0.00000000       0.00000000       0.00000000         0.00000000         0.00000000         22
Al         6.28388839      -0.26408318       7.26739512         0.00000000       0.00000000       0.00000000         0.00000000         0.00000000         13
Ti         8.89091222       2.43241632      16.44338423         0.00000000       0.00000000       0.00000000         0.00000000         0.00000000         22
Al         1.65706534       3.64195171      11.49818625         0.00000000       0.00000000       0.00000000         0.00000000         0.00000000         13
Ti         6.28216603       8.02332332       1.77277235         0.00000000       0.00000000       0.00000000         0.00000000         0.00000000         22
Al         8.07774532       6.18269207       2.83927526         0.00000000       0.00000000       0.00000000         0.00000000         0.00000000         13
Ti         6.49979986       6.67687717       6.71433113         0.00000000       0.00000000       0.00000000         0.00000000         0.00000000         22
Al         5.85726499       2.54418506       5.12650176         0.00000000       0.00000000       0.00000000         0.00000000         0.00000000         13
Ti         5.96931537       3.55387344      10.50687255         0.00000000       0.00000000       0.00000000         0.00000000         0.00000000         22
Al         2.39826175       7.37194920       5.43320940         0.00000000       0.00000000       0.00000000         0.00000000         0.00000000         13
Ti         7.85458696       4.80059648      16.11987070         0.00000000       0.00000000       0.00000000         0.00000000         0.00000000         22
Al         7.61448673       4.50623673       9.23113932         0.00000000       0.00000000       0.00000000         0.00000000         0.00000000         13
Ti         6.60966210      12.43844870       0.81189981         0.00000000       0.00000000       0.00000000         0.00000000         0.00000000         22
Al         4.31138345       9.30722317      -4.13193933         0.00000000       0.00000000       0.00000000         0.00000000         0.00000000         13
Ti         7.48379378       9.03158182       8.94376784         0.00000000       0.00000000       0.00000000         0.00000000         0.00000000         22
Al         4.89178365       8.68249677       5.70208815         0.00000000       0.00000000       0.00000000         0.00000000         0.00000000         13
Ti         9.26839984       8.91466768      11.25220475         0.00000000       0.00000000       0.00000000         0.00000000         0.00000000         22
Al         1.52853886      12.59132642       5.09059399         0.00000000       0.00000000       0.00000000         0.00000000         0.00000000         13
Ti         4.95585732      12.56375795      12.38127684         0.00000000       0.00000000       0.00000000         0.00000000         0.00000000         22
Al         4.81533938       4.94225182       7.47706276         0.00000000       0.00000000       0.00000000         0.00000000         0.00000000         13
Ti        11.23665847       1.64367648       0.55104915         0.00000000       0.00000000       0.00000000         0.00000000         0.00000000         22
Al         7.71240083      -4.20780400      -2.34115844         0.00000000       0.00000000       0.00000000         0.00000000         0.00000000         13
Ti         7.88875237      -2.48039303       6.79167575         0.00000000       0.00000000       0.00000000         0.00000000         0.00000000         22
Al         7.45972417      -7.07882435       2.94954444         0.00000000       0.00000000       0.00000000         0.00000000         0.00000000         13
Ti         6.88917062      -2.44110390      11.27572676         0.00000000       0.00000000       0.00000000         0.00000000         0.00000000         22
Al         6.61453669     -10.52747182       4.88556516         0.00000000       0.00000000       0.00000000         0.00000000         0.00000000         13
Ti         9.39213839       1.17150283      14.20474802         0.00000000       0.00000000       0.00000000         0.00000000         0.00000000         22
Al        10.64224114       4.87945638      11.69328148         0.00000000       0.00000000       0.00000000         0.00000000         0.00000000         13
Ti         8.45947924      -1.32893015       4.48047429         0.00000000       0.00000000       0.00000000         0.00000000         0.00000000         22
Al        12.40068694       6.64387084       3.00800585         0.00000000       0.00000000       0.00000000         0.00000000         0.00000000         13
Ti         8.39521058       5.20177456       6.97913336         0.00000000       0.00000000       0.00000000         0.00000000         0.00000000         22
Al         1.44828158      -0.68481375      10.33712673         0.00000000       0.00000000       0.00000000         0.00000000         0.00000000         13
Ti         6.22857813       2.04298056       8.65352248         0.00000000       0.00000000       0.00000000         0.00000000         0.00000000         22
Al        10.29536590      -2.60744630       3.51799301         0.00000000       0.00000000       0.00000000         0.00000000         0.00000000         13
Ti         9.66582991       5.84133052      16.13620803         0.00000000       0.00000000       0.00000000         0.00000000         0.00000000         22
Al         9.41861278       6.71787782      12.01426477         0.00000000       0.00000000       0.00000000         0.00000000         0.00000000         13
Ti         7.93798564       7.66794464       0.67546903         0.00000000       0.00000000       0.00000000         0.00000000         0.00000000         22
Al        10.40503315       9.17584778       6.58467894         0.00000000       0.00000000       0.00000000         0.00000000         0.00000000         13
Ti        14.63185885       6.04269408       0.81447692         0.00000000       0.00000000       0.00000000         0.00000000         0.00000000         22
Al         6.88997222       5.25020624       4.57540575         0.00000000       0.00000000       0.00000000         0.00000000         0.00000000         13
Ti        11.38369752       7.28593992      10.47946144         0.00000000       0.00000000       0.00000000         0.00000000         0.00000000         22
Al         8.01854623       2.64726622       5.64443892         0.00000000       0.00000000       0.00000000         0.00000000         0.00000000         13
Ti        10.92165216      10.17324137      15.04327799         0.00000000       0.00000000       0.00000000         0.00000000         0.00000000         22
Al         8.71698714       4.65429403      13.41938466         0.00000000       0.00000000       0.00000000         0.00000000         0.00000000         13
Ti         8.67416665      10.26076720       2.05235002         0.00000000       0.00000000       0.00000000         0.00000000         0.00000000         22
Al         4.78802005      10.26128715       0.09696191         0.00000000       0.00000000       0.00000000         0.00000000         0.00000000         13
Ti        11.09582639       6.35566389       7.60321633         0.00000000       0.00000000       0.00000000         0.00000000         0.00000000         22
Al        11.00053373      10.65074457       3.31410436         0.00000000       0.00000000       0.00000000         0.00000000         0.00000000         13
Ti         8.25958888      10.76986852      12.26166758         0.00000000       0.00000000       0.00000000         0.00000000         0.00000000         22
Al         8.54730837       4.14101140      11.06743359         0.00000000       0.00000000       0.00000000         0.00000000         0.00000000         13
Ti        11.10649631       9.59155211      12.75039746         0.00000000       0.00000000       0.00000000         0.00000000         0.00000000         22
Al        16.76341598       8.61585582      14.32135846         0.00000000       0.00000000       0.00000000         0.00000000         0.00000000         13
Ti        -2.62957690       1.35825347      18.82302755         0.00000000       0.00000000       0.00000000         0.00000000         0.00000000         22
Al        -2.93743382       5.73071001      10.57689191         0.00000000       0.00000000       0.00000000         0.00000000         0.00000000         13
Ti         4.01965597       0.55092523      20.44335978         0.00000000       0.00000000       0.00000000         0.00000000         0.00000000         22
Al         1.58053440      -2.10245046      18.25879608         0.00000000       0.00000000       0.00000000         0.00000000         0.00000000         13
Ti        -2.35515961      -0.00678108      25.14127990         0.00000000       0.00000000       0.00000000         0.00000000         0.00000000         22
Al        -1.87449335      -4.11324795      25.10523156         0.00000000       0.00000000       0.00000000         0.00000000         0.00000000         13
Ti         3.40224144       6.40307733      29.82945386         0.00000000       0.00000000       0.00000000         0.00000000         0.00000000         22
Al        -0.39565356       3.76892915      30.22779737         0.00000000       0.00000000       0.00000000         0.00000000         0.00000000         13
Ti         2.73790094       3.04121908      16.71460581         0.00000000       0.00000000       0.00000000         0.00000000         0.00000000         22
Al         0.92612721       5.35522639      20.77254297         0.00000000       0.00000000       0.00000000         0.00000000         0.00000000         13
Ti        -1.00113078       3.58861296      19.47256926         0.00000000       0.00000000       0.00000000         0.00000000         0.00000000         22
Al        -0.74863827       0.91526231      21.50205326         0.00000000       0.00000000       0.00000000         0.00000000         0.00000000         13
Ti         2.99162834       5.95591569      27.56987275         0.00000000       0.00000000       0.00000000         0.00000000         0.00000000         22
Al        -2.09712091      -0.17508415      22.63229677         0.00000000       0.00000000       0.00000000         0.00000000         0.00000000         13
Ti         2.72520536       4.12296461      30.07243653         0.00000000       0.00000000       0.00000000         0.00000000         0.00000000         22
Al        -1.13512761       2.93437908      27.76629558         0.00000000       0.00000000       0.00000000         0.00000000         0.00000000         13
Ti         2.04266642      10.75943691      16.65134941         0.00000000       0.00000000       0.00000000         0.00000000         0.00000000         22
Al         1.42211049       5.65598809      16.97373839         0.00000000       0.00000000       0.00000000         0.00000000         0.00000000         13
Ti         3.94908286       9.74500395      18.47324308         0.00000000       0.00000000       0.00000000         0.00000000         0.00000000         22
Al         0.11124879       8.01551316      20.93137120         0.00000000       0.00000000       0.00000000         0.00000000         0.00000000         13
Ti         5.45115816       6.75604038      27.67184831         0.00000000       0.00000000       0.00000000         0.00000000         0.00000000         22
Al         4.37160078       1.41080146      22.79982471         0.00000000       0.00000000       0.00000000         0.00000000         0.00000000         13
Ti         2.73115235       9.44903017      29.64808760         0.00000000       0.00000000       0.00000000         0.00000000         0.00000000         22
Al         3.01902349       7.72615798      25.09612577         0.00000000       0.00000000       0.00000000         0.00000000         0.00000000         13
Ti        -0.13573002      14.54960841      17.28327304         0.00000000       0.00000000       0.00000000         0.00000000         0.00000000         22
Al         5.87868065       6.22068131      14.59559448         0.00000000       0.00000000       0.00000000         0.00000000         0.00000000         13
Ti         3.86048463       7.20258457      18.93067276         0.00000000       0.00000000       0.00000000         0.00000000         0.00000000         22
Al        -1.38945079       6.57555086      20.96623250         0.00000000       0.00000000       0.00000000         0.00000000         0.00000000         13
Ti         3.93799048       9.96531338      24.56224174         0.00000000       0.00000000       0.00000000         0.00000000         0.00000000         22
Al         0.77819990       1.90800881      18.84067687         0.00000000       0.00000000       0.00000000         0.00000000         0.00000000         13
Ti         4.19126292      14.73986875      27.66547581         0.00000000       0.00000000       0.00000000         0.00000000         0.00000000         22
Al        -5.02352735       3.92998533      21.88429373         0.00000000       0.00000000       0.00000000         0.00000000         0.00000000         13
Ti         1.98748615       0.94623215      14.45930427         0.00000000       0.00000000       0.00000000         0.00000000         0.00000000         22
Al         4.15609010      -2.29702210      16.23568457         0.00000000       0.00000000       0.00000000         0.00000000         0.00000000         13
Ti         1.86406174      -0.93585471      21.15779788         0.00000000       0.00000000       0.00000000         0.00000000         0.00000000         22
Al         0.98919347       2.53558413      22.33066526         0.00000000       0.00000000       0.00000000         0.00000000         0.00000000         13
Ti        -1.92817874       2.03014416      23.96294592         0.00000000       0.00000000       0.00000000         0.00000000         0.00000000         22
Al        -0.26818866      -7.04927355      22.11979497         0.00000000       0.00000000       0.00000000         0.00000000         0.00000000         13
Ti         7.38802449      -0.26096344      31.60453779         0.00000000       0.00000000       0.00000000         0.00000000         0.00000000         22
Al        -0.59551141      -1.95618051      23.96089985         0.00000000       0.00000000       0.00000000         0.00000000         0.00000000         13
Ti        -0.43382695       7.86775917      14.39879679         0.00000000       0.00000000       0.00000000         0.00000000         0.00000000         22
Al        10.52091821       8.15009494      16.95826010         0.00000000       0.00000000       0.00000000         0.00000000         0.00000000         13
Ti         4.60991367       3.46049811      18.74046623         0.00000000       0.00000000       0.00000000         0.00000000         0.00000000         22
Al         1.62221749      -2.00169827      23.80060344         0.00000000       0.00000000       0.00000000         0.00000000         0.00000000         13
Ti        -0.53105861       3.45500608      24.52033633         0.00000000       0.00000000       0.00000000         0.00000000         0.00000000         22
Al         2.26757962       4.67020683      18.93384339         0.00000000       0.00000000       0.00000000         0.00000000         0.00000000         13
Ti         1.89059030       8.13159320      27.78608469         0.00000000       0.00000000       0.00000000         0.00000000         0.00000000         22
Al        -2.75136562       2.00714697      26.64303371         0.00000000       0.00000000       0.00000000         0.00000000         0.00000000         13
Ti         3.72565370      12.31263033      18.18821443         0.00000000       0.00000000       0.00000000         0.00000000         0.00000000         22
Al         1.87214272       7.63057285      15.94523617         0.00000000       0.00000000       0.00000000         0.00000000         0.00000000         13
Ti         3.65847113       3.19293773      24.80163208         0.00000000       0.00000000       0.00000000         0.00000000         0.00000000         22
Al         6.47647770       8.10014673      19.99033462         0.00000000       0.00000000       0.00000000         0.00000000         0.00000000         13
Ti         5.40463299       7.91406769      24.23774422         0.00000000       0.00000000       0.00000000         0.00000000         0.00000000         22
Al        -0.42508520       0.96459308      26.89877700         0.00000000       0.00000000       0.00000000         0.00000000         0.00000000         13
Ti         6.06581043       4.11690930      28.79776539         0.00000000       0.00000000       0.00000000         0.00000000         0.00000000         22
Al         1.02256810       6.11908419      29.82600209         0.00000000       0.00000000       0.00000000         0.00000000         0.00000000         13
Ti         5.17629674      14.80834038      15.90617339         0.00000000       0.00000000       0.00000000         0.00000000         0.00000000         22
Al         5.98932282      10.27541261      12.98703887         0.00000000       0.00000000       0.00000000         0.00000000         0.00000000         13
Ti         5.58285853       5.40715694      18.03460290         0.00000000       0.00000000       0.00000000         0.00000000         0.00000000         22
Al         2.51652993      11.45642628      22.95306138         0.00000000       0.00000000       0.00000000         0.00000000         0.00000000         13