2
Lattice="2.614036117884091 0.0 0.0 0.0 2.6528336296738044 0.0 0.0 0.0 3.8250280122051756" Properties=species:S:1:pos:R:3:force:R:3:tags:I:1 config_type=FLD_TiAl spacegroup="P 1" virial="5.072173561696366 0.1220123768779895 0.6518229755809941 0.1220123768779895 4.667636799854875 0.5969893898844183 0.6518229755809941 0.5969893898844183 4.700422750506493" energy=-1703.64063822 unit_cell=conventional n_minim_iter=2 pbc="T T T"
Ti       1.30924260       1.32316179       1.62637131       0.86219000       0.78737000       2.65969000        0
Al       0.11095015       0.09471147      -0.05013464      -0.86219000      -0.78737000      -2.65969000        1
2
Lattice="2.6528336296738044 0.02630779655214213 0.0 0.0 2.6528336296738044 0.0 0.0 0.0 3.8250280122051756" Properties=species:S:1:pos:R:3:force:R:3:tags:I:1 config_type=FLD_TiAl spacegroup="P 1" virial="4.15023781187055 -0.06577612122395084 -0.171170505070969 -0.06577612122395084 4.04967986552191 -0.5378649084927113 -0.171170505070969 -0.5378649084927113 4.042613216415338" energy=-1703.82673644 unit_cell=conventional n_minim_iter=2 pbc="T T T"
Ti       1.33489792       1.43578555       1.86138486      -0.26082000      -0.81162000       2.10994000        0
Al      -0.02858694      -0.01403313       0.14867884       0.26082000       0.81162000      -2.10994000        1
2
Lattice="2.6528336296738044 0.0 0.06755175285654859 0.0 2.6528336296738044 0.0 0.0 0.0 3.8250280122051756" Properties=species:S:1:pos:R:3:force:R:3:tags:I:1 config_type=FLD_TiAl spacegroup="P 1" virial="4.072891774873278 -0.13349515091838202 -0.939913055098077 -0.13349515091838202 3.4624871924596543 0.6797839218196843 -0.939913055098077 0.6797839218196843 4.678858951924236" energy=-1703.76378253 unit_cell=conventional n_minim_iter=2 pbc="T T T"
Ti       1.23028343       1.55107468       1.99220177       0.37348000      -1.76228000      -1.23099000        0
Al      -0.06003893      -0.04203415      -0.05924850      -0.37348000       1.76228000       1.23099000        1
